Program Version,EnergyPlus, Version 23.2.0-7636e6b3e9, YMD=2024.01.19 17:10
1,5,Environment Title[],Latitude[deg],Longitude[deg],Time Zone[],Elevation[m]
2,8,Day of Simulation[],Month[],Day of Month[],DST Indicator[1=yes 0=no],Hour[],StartMinute[],EndMinute[],DayType
3,5,Cumulative Day of Simulation[],Month[],Day of Month[],DST Indicator[1=yes 0=no],DayType  ! When Daily Report Variables Requested
4,2,Cumulative Days of Simulation[],Month[]  ! When Monthly Report Variables Requested
5,1,Cumulative Days of Simulation[] ! When Run Period Report Variables Requested
6,1,Calendar Year of Simulation[] ! When Annual Report Variables Requested
7,1,OPEN OFFICE 1-01,Zone Air Temperature [C] !Hourly
8,1,OPEN OFFICE 1-01,Zone Air Relative Humidity [%] !Hourly
143,1,OPEN OFFICE 1-01,Zone Thermostat Heating Setpoint Temperature [C] !Hourly
144,1,OPEN OFFICE 1-01,Zone Thermostat Cooling Setpoint Temperature [C] !Hourly
145,1,OPEN OFFICE 1-02,Zone Air Temperature [C] !Hourly
146,1,OPEN OFFICE 1-02,Zone Air Relative Humidity [%] !Hourly
209,1,OPEN OFFICE 1-02,Zone Thermostat Heating Setpoint Temperature [C] !Hourly
210,1,OPEN OFFICE 1-02,Zone Thermostat Cooling Setpoint Temperature [C] !Hourly
211,1,OPEN OFFICE 1-03,Zone Air Temperature [C] !Hourly
212,1,OPEN OFFICE 1-03,Zone Air Relative Humidity [%] !Hourly
275,1,OPEN OFFICE 1-03,Zone Thermostat Heating Setpoint Temperature [C] !Hourly
276,1,OPEN OFFICE 1-03,Zone Thermostat Cooling Setpoint Temperature [C] !Hourly
277,1,OPEN OFFICE 2-04,Zone Air Temperature [C] !Hourly
278,1,OPEN OFFICE 2-04,Zone Air Relative Humidity [%] !Hourly
341,1,OPEN OFFICE 2-04,Zone Thermostat Heating Setpoint Temperature [C] !Hourly
342,1,OPEN OFFICE 2-04,Zone Thermostat Cooling Setpoint Temperature [C] !Hourly
343,1,OPEN OFFICE 2-05,Zone Air Temperature [C] !Hourly
344,1,OPEN OFFICE 2-05,Zone Air Relative Humidity [%] !Hourly
407,1,OPEN OFFICE 2-05,Zone Thermostat Heating Setpoint Temperature [C] !Hourly
408,1,OPEN OFFICE 2-05,Zone Thermostat Cooling Setpoint Temperature [C] !Hourly
409,1,OPEN OFFICE 2-06,Zone Air Temperature [C] !Hourly
410,1,OPEN OFFICE 2-06,Zone Air Relative Humidity [%] !Hourly
473,1,OPEN OFFICE 2-06,Zone Thermostat Heating Setpoint Temperature [C] !Hourly
474,1,OPEN OFFICE 2-06,Zone Thermostat Cooling Setpoint Temperature [C] !Hourly
End of Data Dictionary
1,MONTREAL INT'L ANN CLG .4% CONDNS DB=>MWB,  45.47, -73.75,  -5.00,  36.00
2,1, 7,21, 0, 1, 0.00,60.00,SummerDesignDay
7,17.596385664502964
8,80.63283151438424
143,15.599999999999996
144,26.699999999999992
145,17.502103696561498
146,81.1385747723789
209,15.599999999999996
210,26.699999999999992
211,17.58050101151294
212,80.66167999459844
275,15.599999999999996
276,26.699999999999992
277,17.963655179211305
278,79.61127277314439
341,15.599999999999996
342,26.699999999999992
343,17.775858012030184
344,80.76508580318414
407,15.599999999999996
408,26.699999999999992
409,17.92238600072857
410,79.84393731643895
473,15.599999999999996
474,26.699999999999992
2,1, 7,21, 0, 2, 0.00,60.00,SummerDesignDay
7,17.473078370969194
8,81.80378491354152
143,15.599999999999996
144,26.699999999999992
145,17.396444318392422
146,82.28919162206306
209,15.599999999999996
210,26.699999999999992
211,17.462003067073763
212,81.83342214692617
275,15.599999999999996
276,26.699999999999992
277,17.814798341791484
278,80.6340312370221
341,15.599999999999996
342,26.699999999999992
343,17.64856740901929
344,81.69863656130613
407,15.599999999999996
408,26.699999999999992
409,17.779759898053594
410,80.84196621831036
473,15.599999999999996
474,26.699999999999992
2,1, 7,21, 0, 3, 0.00,60.00,SummerDesignDay
7,17.373104917235207
8,82.5543398397131
143,15.599999999999996
144,26.699999999999992
145,17.310652970197488
146,82.9825915274868
209,15.599999999999996
210,26.699999999999992
211,17.365983596054352
212,82.56975220728079
275,15.599999999999996
276,26.699999999999992
277,17.687370760814225
278,81.4770518763079
341,15.599999999999996
342,26.699999999999992
343,17.54041742654851
344,82.45083667145997
407,15.599999999999996
408,26.699999999999992
409,17.657894509491207
410,81.65905461938316
473,15.599999999999996
474,26.699999999999992
2,1, 7,21, 0, 4, 0.00,60.00,SummerDesignDay
7,17.283419046826747
8,83.65158285793713
143,15.599999999999996
144,26.699999999999992
145,17.233301538922802
146,83.97762547504105
209,15.599999999999996
210,26.699999999999992
211,17.27982569845202
212,83.63504679501581
275,15.599999999999996
276,26.699999999999992
277,17.56703340046177
278,82.85629072761981
341,15.599999999999996
342,26.699999999999992
343,17.43764521341245
344,83.71364442246767
407,15.599999999999996
408,26.699999999999992
409,17.542632425101782
410,83.00241048474885
473,15.599999999999996
474,26.699999999999992
2,1, 7,21, 0, 5, 0.00,60.00,SummerDesignDay
7,17.20116862916881
8,86.30431058793017
143,15.599999999999996
144,26.699999999999992
145,17.161334171508667
146,86.52852138683413
209,15.599999999999996
210,26.699999999999992
211,17.20376384111155
212,86.24118710817474
275,15.599999999999996
276,26.699999999999992
277,17.454185754818646
278,85.64108322870776
341,15.599999999999996
342,26.699999999999992
343,17.3401786352544
344,86.41768287959506
407,15.599999999999996
408,26.699999999999992
409,17.436221433492708
410,85.75427349950633
473,15.599999999999996
474,26.699999999999992
2,1, 7,21, 0, 6, 0.00,60.00,SummerDesignDay
7,17.17499502830012
8,86.80098049042401
143,15.599999999999996
144,26.699999999999992
145,17.134400252019166
146,87.10219507108128
209,15.599999999999996
210,26.699999999999992
211,17.24613753920695
212,86.38662808738381
275,15.599999999999996
276,26.699999999999992
277,17.420324658853684
278,85.98626702223788
341,15.599999999999996
342,26.699999999999992
343,17.31289777402374
344,86.76189990854017
407,15.599999999999996
408,26.699999999999992
409,17.448599464492524
410,85.85898263080223
473,15.599999999999996
474,26.699999999999992
2,1, 7,21, 0, 7, 0.00,60.00,SummerDesignDay
7,16.735291911254688
8,81.96268809647513
143,15.599999999999996
144,24.0
145,16.711716049902567
146,82.68612156096906
209,15.599999999999996
210,24.0
211,16.948364555479316
212,81.03638852764114
275,15.599999999999996
276,24.0
277,16.900677363443297
278,79.57777879859604
341,15.599999999999996
342,24.0
343,16.792057526389367
344,80.6772802292899
407,15.599999999999996
408,24.0
409,17.035930878383756
410,79.06143369055569
473,15.599999999999996
474,24.0
2,1, 7,21, 0, 8, 0.00,60.00,SummerDesignDay
7,16.620086001818855
8,73.37037247768805
143,15.599999999999996
144,24.0
145,16.5816558250238
146,74.19820244461387
209,15.599999999999996
210,24.0
211,16.9305488027447
212,72.11100830348254
275,15.599999999999996
276,24.0
277,16.778927794541683
278,70.20848091791213
341,15.599999999999996
342,24.0
343,16.658483676110553
344,71.18944224753635
407,15.599999999999996
408,24.0
409,17.006332949925365
410,69.31398350149631
473,15.599999999999996
474,24.0
2,1, 7,21, 0, 9, 0.00,60.00,SummerDesignDay
7,16.687486206588595
8,68.54369798286253
143,15.599999999999996
144,24.0
145,16.627044569186136
146,69.23151560936098
209,15.599999999999996
210,24.0
211,17.03845161161441
212,67.11408391542098
275,15.599999999999996
276,24.0
277,16.832334111567608
278,66.12054991322982
341,15.599999999999996
342,24.0
343,16.69878943377596
344,66.96331554306131
407,15.599999999999996
408,24.0
409,17.120228382087344
410,64.97088170541628
473,15.599999999999996
474,24.0
2,1, 7,21, 0,10, 0.00,60.00,SummerDesignDay
7,16.791206152576542
8,65.7036629228299
143,15.599999999999996
144,24.0
145,16.707827496462304
146,66.33167900699908
209,15.599999999999996
210,24.0
211,17.133207653208068
212,64.31729007340729
275,15.599999999999996
276,24.0
277,16.928512405649595
278,64.06002348264785
341,15.599999999999996
342,24.0
343,16.779512559875357
344,64.8797944746763
407,15.599999999999996
408,24.0
409,17.241188838009318
410,62.82115950370761
473,15.599999999999996
474,24.0
2,1, 7,21, 0,11, 0.00,60.00,SummerDesignDay
7,16.90102103748752
8,63.95546992235998
143,15.599999999999996
144,24.0
145,16.79601682993785
146,64.58405849973371
209,15.599999999999996
210,24.0
211,17.187536567531897
212,62.798904470334946
275,15.599999999999996
276,24.0
277,17.039145194400394
278,62.84235100252473
341,15.599999999999996
342,24.0
343,16.87406089258362
344,63.687184156169685
407,15.599999999999996
408,24.0
409,17.33756800422492
410,61.67181923740579
473,15.599999999999996
474,24.0
2,1, 7,21, 0,12, 0.00,60.00,SummerDesignDay
7,17.00268039219024
8,62.84665253056409
143,15.599999999999996
144,24.0
145,16.88027228138066
146,63.496553212721494
209,15.599999999999996
210,24.0
211,17.20394514182947
212,62.032037626795756
275,15.599999999999996
276,24.0
277,17.14867297904495
278,62.015648756923724
341,15.599999999999996
342,24.0
343,16.969360870389988
344,62.89645748483351
407,15.599999999999996
408,24.0
409,17.400438562778398
410,61.03695198648821
473,15.599999999999996
474,24.0
2,1, 7,21, 0,13, 0.00,60.00,SummerDesignDay
7,17.102256801038198
8,62.06897977920235
143,15.599999999999996
144,24.0
145,16.954380461471143
146,62.79286875723465
209,15.599999999999996
210,24.0
211,17.23165488398696
212,61.539649416862574
275,15.599999999999996
276,24.0
277,17.2597100975862
278,61.35174685469565
341,15.599999999999996
342,24.0
343,17.060095018724063
344,62.299649835414975
407,15.599999999999996
408,24.0
409,17.461709583776372
410,60.57371287694482
473,15.599999999999996
474,24.0
2,1, 7,21, 0,14, 0.00,60.00,SummerDesignDay
7,17.253498432530364
8,61.23026614407994
143,15.599999999999996
144,24.0
145,17.024840888976588
146,62.25673163264832
209,15.599999999999996
210,24.0
211,17.29342040956242
212,61.05318121032286
275,15.599999999999996
276,24.0
277,17.413210374450816
278,60.56977513329479
341,15.599999999999996
342,24.0
343,17.15380249900663
344,61.73990423446103
407,15.599999999999996
408,24.0
409,17.546973461973124
410,60.06184695206927
473,15.599999999999996
474,24.0
2,1, 7,21, 0,15, 0.00,60.00,SummerDesignDay
7,17.41643914111344
8,60.39209843926951
143,15.599999999999996
144,24.0
145,17.08269252081275
146,61.81763599389495
209,15.599999999999996
210,24.0
211,17.34576917697397
212,60.64448547938681
275,15.599999999999996
276,24.0
277,17.583450117934234
278,59.71967444558843
341,15.599999999999996
342,24.0
343,17.237793247832244
344,61.210235884123854
407,15.599999999999996
408,24.0
409,17.62477179295337
410,59.569121385412814
473,15.599999999999996
474,24.0
2,1, 7,21, 0,16, 0.00,60.00,SummerDesignDay
7,17.53539338726799
8,59.741302220897374
143,15.599999999999996
144,24.0
145,17.113536704406783
146,61.49819539062847
209,15.599999999999996
210,24.0
211,17.36428904226697
212,60.379007904732525
275,15.599999999999996
276,24.0
277,17.72517840736576
278,58.979471907987204
341,15.599999999999996
342,24.0
343,17.29306469902701
344,60.786826532577926
407,15.599999999999996
408,24.0
409,17.669070804051987
410,59.19800968660311
473,15.599999999999996
474,24.0
2,1, 7,21, 0,17, 0.00,60.00,SummerDesignDay
7,17.587295167754665
8,59.36491730294023
143,15.599999999999996
144,24.0
145,17.116104184447508
146,61.304067958421534
209,15.599999999999996
210,24.0
211,17.348657315477272
212,60.26065744320508
275,15.599999999999996
276,24.0
277,17.816727406304608
278,58.44959116894564
341,15.599999999999996
342,24.0
343,17.318291304121846
344,60.49641828536833
407,15.599999999999996
408,24.0
409,17.67838217513565
410,58.975648873327906
473,15.599999999999996
474,24.0
2,1, 7,21, 0,18, 0.00,60.00,SummerDesignDay
7,17.57038360530699
8,59.27919019336942
143,15.599999999999996
144,24.0
145,17.1045422462356
146,61.19326770391911
209,15.599999999999996
210,24.0
211,17.3136852513162
212,60.24582377404582
275,15.599999999999996
276,24.0
277,17.859572451370337
278,58.13354062857359
341,15.599999999999996
342,24.0
343,17.33217194524149
344,60.280780288336594
407,15.599999999999996
408,24.0
409,17.671179672879834
410,58.84586683094714
473,15.599999999999996
474,24.0
2,1, 7,21, 0,19, 0.00,60.00,SummerDesignDay
7,17.45637032181882
8,59.59885520704271
143,15.599999999999996
144,24.0
145,17.065487724117293
146,61.22551800654686
209,15.599999999999996
210,24.0
211,17.246210610517984
212,60.39312524562437
275,15.599999999999996
276,24.0
277,17.822793983204523
278,58.14242126747999
341,15.599999999999996
342,24.0
343,17.321502475552425
344,60.190191724598435
407,15.599999999999996
408,24.0
409,17.633654785219502
410,58.86020686238951
473,15.599999999999996
474,24.0
2,1, 7,21, 0,20, 0.00,60.00,SummerDesignDay
7,17.241277111913423
8,60.37880858268258
143,15.599999999999996
144,24.0
145,16.991788759580135
146,61.45938125770662
209,15.599999999999996
210,24.0
211,17.142729453442644
212,60.748320685786155
275,15.599999999999996
276,24.0
277,17.66237797706859
278,58.69262716500663
341,15.599999999999996
342,24.0
343,17.249798875122735
344,60.41495472434415
407,15.599999999999996
408,24.0
409,17.531860639336386
410,59.19751022439949
473,15.599999999999996
474,24.0
2,1, 7,21, 0,21, 0.00,60.00,SummerDesignDay
7,17.091457957302456
8,60.998186227551884
143,15.599999999999996
144,24.0
145,16.923518428946867
146,61.754156326156334
209,15.599999999999996
210,24.0
211,17.053850924825163
212,61.129194701845115
275,15.599999999999996
276,24.0
277,17.514253030806376
278,59.316223402953504
341,15.599999999999996
342,24.0
343,17.170011013447844
344,60.786675400230735
407,15.599999999999996
408,24.0
409,17.42681621913458
410,59.662224505132
473,15.599999999999996
474,24.0
2,1, 7,21, 0,22, 0.00,60.00,SummerDesignDay
7,16.999327361126607
8,61.4139264600924
143,15.599999999999996
144,24.0
145,16.86234562796646
146,62.04460784577332
209,15.599999999999996
210,24.0
211,16.97807853594334
212,61.48018548571972
275,15.599999999999996
276,24.0
277,17.40241930070434
278,59.845583669471786
341,15.599999999999996
342,24.0
343,17.095542248606833
344,61.180664311534336
407,15.599999999999996
408,24.0
409,17.33133832260015
410,60.13239648405809
473,15.599999999999996
474,24.0
2,1, 7,21, 0,23, 0.00,60.00,SummerDesignDay
7,17.65749469249575
8,69.64998464317341
143,15.599999999999996
144,26.699999999999992
145,17.515852350705643
146,69.79330784892073
209,15.599999999999996
210,26.699999999999992
211,17.62785514356926
212,69.52882488732787
275,15.599999999999996
276,26.699999999999992
277,18.115984815968822
278,70.1779237512907
341,15.599999999999996
342,26.699999999999992
343,17.866186544312168
344,71.12465330139342
407,15.599999999999996
408,26.699999999999992
409,18.056253446094498
410,70.32663109092083
473,15.599999999999996
474,26.699999999999992
2,1, 7,21, 0,24, 0.00,60.00,SummerDesignDay
7,17.724258034844585
8,78.0532203066607
143,15.599999999999996
144,26.699999999999992
145,17.6095220000314
146,78.40726010496203
209,15.599999999999996
210,26.699999999999992
211,17.702632430133274
212,78.01724097488427
275,15.599999999999996
276,26.699999999999992
277,18.117278446240167
278,77.8943582578796
341,15.599999999999996
342,26.699999999999992
343,17.90612760891403
344,79.05878724256345
407,15.599999999999996
408,26.699999999999992
409,18.069110665255483
410,78.12447109160715
473,15.599999999999996
474,26.699999999999992
1,MONTREAL INT'L ANN CLG .4% CONDNS DP=>MDB,  45.47, -73.75,  -5.00,  36.00
2,1, 7,21, 0, 1, 0.00,60.00,SummerDesignDay
7,16.4841619386951
8,89.75188380453653
143,15.599999999999996
144,26.699999999999992
145,16.451405215829258
146,90.08428335089742
209,15.599999999999996
210,26.699999999999992
211,16.48161386448842
212,89.77868966367627
275,15.599999999999996
276,26.699999999999992
277,16.439188660462083
278,92.29201644901629
341,15.599999999999996
342,26.699999999999992
343,16.286449068058122
344,93.40244292189858
407,15.599999999999996
408,26.699999999999992
409,16.401353171052204
410,92.55697579394639
473,15.599999999999996
474,26.699999999999992
2,1, 7,21, 0, 2, 0.00,60.00,SummerDesignDay
7,16.357280557136942
8,89.31526005192285
143,15.599999999999996
144,26.699999999999992
145,16.341796618152284
146,89.52920134138266
209,15.599999999999996
210,26.699999999999992
211,16.359604202806384
212,89.3118643819509
275,15.599999999999996
276,26.699999999999992
277,16.27423208276269
278,92.01977290729035
341,15.599999999999996
342,26.699999999999992
343,16.143089271836757
344,92.97463638262555
407,15.599999999999996
408,26.699999999999992
409,16.24268367502099
410,92.24224583770693
473,15.599999999999996
474,26.699999999999992
2,1, 7,21, 0, 3, 0.00,60.00,SummerDesignDay
7,16.254513141574254
8,89.14910457527604
143,15.599999999999996
144,26.699999999999992
145,16.25303516304911
146,89.25782846991568
209,15.599999999999996
210,26.699999999999992
211,16.260838183847167
212,89.11771883049916
275,15.599999999999996
276,26.699999999999992
277,16.13284239458409
278,91.95764418254396
341,15.599999999999996
342,26.699999999999992
343,16.0207816357479
344,92.77889645983016
407,15.599999999999996
408,26.699999999999992
409,16.106860831271398
410,92.14274013431219
473,15.599999999999996
474,26.699999999999992
2,1, 7,21, 0, 4, 0.00,60.00,SummerDesignDay
7,16.162548118040693
8,89.07244368033616
143,15.599999999999996
144,26.699999999999992
145,16.173356258052895
146,89.09801441259053
209,15.599999999999996
210,26.699999999999992
211,16.17241300701292
212,89.01919068081611
275,15.599999999999996
276,26.699999999999992
277,16.00006209008823
278,92.00152885881847
341,15.599999999999996
342,26.699999999999992
343,15.905268289186033
344,92.70857638298203
407,15.599999999999996
408,26.699999999999992
409,15.979117884826957
410,92.15465981553554
473,15.599999999999996
474,26.699999999999992
2,1, 7,21, 0, 5, 0.00,60.00,SummerDesignDay
7,16.078837789155944
8,89.02622497849727
143,15.599999999999996
144,26.699999999999992
145,16.099876070233325
146,88.98328761048214
209,15.599999999999996
210,26.699999999999992
211,16.094973202932753
212,88.93600664868309
275,15.599999999999996
276,26.699999999999992
277,15.876515189527582
278,92.09306014856497
341,15.599999999999996
342,26.699999999999992
343,15.796701957292852
344,92.69998294807199
407,15.599999999999996
408,26.699999999999992
409,15.861884208248119
410,92.2064486211777
473,15.599999999999996
474,26.699999999999992
2,1, 7,21, 0, 6, 0.00,60.00,SummerDesignDay
7,16.04942519722241
8,89.00873859057252
143,15.599999999999996
144,26.699999999999992
145,16.06950348118383
146,88.94939939272315
209,15.599999999999996
210,26.699999999999992
211,16.135918877937687
212,88.51046175891146
275,15.599999999999996
276,26.699999999999992
277,15.831241817859963
278,92.19645937362816
341,15.599999999999996
342,26.699999999999992
343,15.757646297562204
344,92.74962138969066
407,15.599999999999996
408,26.699999999999992
409,15.862427177695976
410,92.03283572151771
473,15.599999999999996
474,26.699999999999992
2,1, 7,21, 0, 7, 0.00,60.00,SummerDesignDay
7,15.969173025872154
8,86.17513241726165
143,15.599999999999996
144,24.0
145,15.989580222917182
146,86.33319773745741
209,15.599999999999996
210,24.0
211,16.18717306206067
212,85.0576548143349
275,15.599999999999996
276,24.0
277,15.675928455655223
278,89.53265048116172
341,15.599999999999996
342,24.0
343,15.596586840128365
344,90.22524066877945
407,15.599999999999996
408,24.0
409,15.807304370824147
410,88.84859555289381
473,15.599999999999996
474,24.0
2,1, 7,21, 0, 8, 0.00,60.00,SummerDesignDay
7,15.975946411136347
8,84.019982210196
143,15.599999999999996
144,24.0
145,15.98309954966647
146,84.14844298702383
209,15.599999999999996
210,24.0
211,16.290152840995777
212,82.37780578922936
275,15.599999999999996
276,24.0
277,15.65108356801778
278,88.41518939796065
341,15.599999999999996
342,24.0
343,15.563042759214255
344,89.02499762348282
407,15.599999999999996
408,24.0
409,15.873718356005513
410,87.1790846977154
473,15.599999999999996
474,24.0
2,1, 7,21, 0, 9, 0.00,60.00,SummerDesignDay
7,16.060076214246443
8,84.38072713347178
143,15.599999999999996
144,24.0
145,16.047211533732362
146,84.46525077207453
209,15.599999999999996
210,24.0
211,16.415325081328792
212,82.44863866051533
275,15.599999999999996
276,24.0
277,15.72689466532105
278,88.4474742084099
341,15.599999999999996
342,24.0
343,15.62680243557962
344,89.123018300412
407,15.599999999999996
408,24.0
409,16.009694557428272
410,86.86396142277921
473,15.599999999999996
474,24.0
2,1, 7,21, 0,10, 0.00,60.00,SummerDesignDay
7,16.169359651309218
8,81.90047831309438
143,15.599999999999996
144,24.0
145,16.134956622990696
146,82.30953133702705
209,15.599999999999996
210,24.0
211,16.515807178826105
212,80.12505169147299
275,15.599999999999996
276,24.0
277,15.839033976347238
278,84.95450313031556
341,15.599999999999996
342,24.0
343,15.724334534789007
344,85.87038998728497
407,15.599999999999996
408,24.0
409,16.146536174102618
410,83.34649149950253
473,15.599999999999996
474,24.0
2,1, 7,21, 0,11, 0.00,60.00,SummerDesignDay
7,16.281963403986158
8,78.16531299414999
143,15.599999999999996
144,24.0
145,16.226794203848918
146,78.73528697616834
209,15.599999999999996
210,24.0
211,16.573302220577784
212,76.7479195521448
275,15.599999999999996
276,24.0
277,15.962685558264369
278,81.3570219307298
341,15.599999999999996
342,24.0
343,15.832676600676464
344,82.3207098720909
407,15.599999999999996
408,24.0
409,16.25663292160598
410,79.87551046362891
473,15.599999999999996
474,24.0
2,1, 7,21, 0,12, 0.00,60.00,SummerDesignDay
7,16.385239396000873
8,76.04535942448815
143,15.599999999999996
144,24.0
145,16.313183177088327
146,76.62952795541182
209,15.599999999999996
210,24.0
211,16.591500022264288
212,75.05009737482463
275,15.599999999999996
276,24.0
277,16.08301245727814
278,79.36505586524686
341,15.599999999999996
342,24.0
343,15.939468900667825
344,80.34287337218196
407,15.599999999999996
408,24.0
409,16.3314091306257
410,78.13371023868322
473,15.599999999999996
474,24.0
2,1, 7,21, 0,13, 0.00,60.00,SummerDesignDay
7,16.486179556320568
8,74.68392664813923
143,15.599999999999996
144,24.0
145,16.38896063067369
146,75.33742866770459
209,15.599999999999996
210,24.0
211,16.620656130761674
212,74.03186241467897
275,15.599999999999996
276,24.0
277,16.202945723645126
278,77.99674133630907
341,15.599999999999996
342,24.0
343,16.039906593719426
344,79.04164028347668
407,15.599999999999996
408,24.0
409,16.402572363223104
410,77.0217004704203
473,15.599999999999996
474,24.0
2,1, 7,21, 0,14, 0.00,60.00,SummerDesignDay
7,16.638458010652748
8,73.41477720432479
143,15.599999999999996
144,24.0
145,16.460703284908963
146,74.42139068432392
209,15.599999999999996
210,24.0
211,16.683641385919387
212,73.18510210473812
275,15.599999999999996
276,24.0
277,16.363167358479096
278,76.65084631028172
341,15.599999999999996
342,24.0
343,16.14191081621043
344,77.96512297242964
407,15.599999999999996
408,24.0
409,16.496125683490092
410,76.0156186976992
473,15.599999999999996
474,24.0
2,1, 7,21, 0,15, 0.00,60.00,SummerDesignDay
7,16.803025214307805
8,72.22231999845087
143,15.599999999999996
144,24.0
145,16.520163925174113
146,73.7035941193454
209,15.599999999999996
210,24.0
211,16.737523316050424
212,72.50882796847735
275,15.599999999999996
276,24.0
277,16.538942996387608
278,75.2958162362749
341,15.599999999999996
342,24.0
343,16.233159643815075
344,77.00522693173127
407,15.599999999999996
408,24.0
409,16.581225569283287
410,75.10826754169122
473,15.599999999999996
474,24.0
2,1, 7,21, 0,16, 0.00,60.00,SummerDesignDay
7,16.92463902371032
8,71.3038669120689
143,15.599999999999996
144,24.0
145,16.55353226752328
146,73.17918969495899
209,15.599999999999996
210,24.0
211,16.75850356931492
212,72.05288024901445
275,15.599999999999996
276,24.0
277,16.68585710917248
278,74.14485245878576
341,15.599999999999996
342,24.0
343,16.294893994527385
344,76.2453384214475
407,15.599999999999996
408,24.0
409,16.632115879551357
410,74.41881244582561
473,15.599999999999996
474,24.0
2,1, 7,21, 0,17, 0.00,60.00,SummerDesignDay
7,16.97994039741987
8,70.75973402765163
143,15.599999999999996
144,24.0
145,16.559546630242384
146,72.84873281634592
209,15.599999999999996
210,24.0
211,16.74624862229778
212,71.81699536681487
275,15.599999999999996
276,24.0
277,16.782671935314593
278,73.33043374027233
341,15.599999999999996
342,24.0
343,16.32606569444415
344,75.72591876040028
407,15.599999999999996
408,24.0
409,16.647532550872942
410,73.98870916315592
473,15.599999999999996
474,24.0
2,1, 7,21, 0,18, 0.00,60.00,SummerDesignDay
7,16.966894451804738
8,70.60270256483678
143,15.599999999999996
144,24.0
145,16.55197308225502
146,72.65682766614468
209,15.599999999999996
210,24.0
211,16.71517380395364
212,71.74369780492611
275,15.599999999999996
276,24.0
277,16.83113034165744
278,72.84279698856483
341,15.599999999999996
342,24.0
343,16.345585465654715
344,75.36126873286753
407,15.599999999999996
408,24.0
409,16.646122003037974
410,73.73465163953952
473,15.599999999999996
474,24.0
2,1, 7,21, 0,19, 0.00,60.00,SummerDesignDay
7,16.857474061483412
8,70.96473402735829
143,15.599999999999996
144,24.0
145,16.517717285295266
146,72.66918560804451
209,15.599999999999996
210,24.0
211,16.65240158428591
212,71.89793345982382
275,15.599999999999996
276,24.0
277,16.800698730309115
278,72.81123129564625
341,15.599999999999996
342,24.0
343,16.340576102834927
344,75.2042270378287
407,15.599999999999996
408,24.0
409,16.614393535965366
410,73.71181126711126
473,15.599999999999996
474,24.0
2,1, 7,21, 0,20, 0.00,60.00,SummerDesignDay
7,16.647675418593654
8,71.91126243667034
143,15.599999999999996
144,24.0
145,16.449440868712315
146,72.9558639176525
209,15.599999999999996
210,24.0
211,16.55423122457174
212,72.33479098836881
275,15.599999999999996
276,24.0
277,16.647980817883695
278,73.520144693495
341,15.599999999999996
342,24.0
343,16.275260470705835
344,75.5051375374603
407,15.599999999999996
408,24.0
409,16.519075703917007
410,74.15723441798643
473,15.599999999999996
474,24.0
2,1, 7,21, 0,21, 0.00,60.00,SummerDesignDay
7,16.502313499505043
8,74.98997198568993
143,15.599999999999996
144,24.0
145,16.38575396918516
146,75.43880183829462
209,15.599999999999996
210,24.0
211,16.469721535738206
212,75.05439427723265
275,15.599999999999996
276,24.0
277,16.506033187025604
278,76.93504009101711
341,15.599999999999996
342,24.0
343,16.20126129735661
344,78.47498871938437
407,15.599999999999996
408,24.0
409,16.419671132692226
410,77.32905864789761
473,15.599999999999996
474,24.0
2,1, 7,21, 0,22, 0.00,60.00,SummerDesignDay
7,16.41266860034227
8,81.98070024831831
143,15.599999999999996
144,24.0
145,16.32746001122578
146,82.13844697628012
209,15.599999999999996
210,24.0
211,16.396450244072785
212,81.9267720878449
275,15.599999999999996
276,24.0
277,16.397807373650917
278,84.07379571322194
341,15.599999999999996
342,24.0
343,16.130568381930406
344,85.48870920785124
407,15.599999999999996
408,24.0
409,16.327583944145402
410,84.4126139062945
473,15.599999999999996
474,24.0
2,1, 7,21, 0,23, 0.00,60.00,SummerDesignDay
7,16.66844945242545
8,88.12968786343349
143,15.599999999999996
144,26.699999999999992
145,16.592396099727793
146,88.20923895797979
209,15.599999999999996
210,26.699999999999992
211,16.652978096894117
212,88.04416898863643
275,15.599999999999996
276,26.699999999999992
277,16.704888298557965
278,90.87255460918486
341,15.599999999999996
342,26.699999999999992
343,16.493413585362642
344,92.06305997421684
407,15.599999999999996
408,26.699999999999992
409,16.649456281835494
410,91.14067929118208
473,15.599999999999996
474,26.699999999999992
2,1, 7,21, 0,24, 0.00,60.00,SummerDesignDay
7,16.6224814890823
8,90.38352671528757
143,15.599999999999996
144,26.699999999999992
145,16.569366351442955
146,90.72353382574094
209,15.599999999999996
210,26.699999999999992
211,16.614109493902706
212,90.40036899192542
275,15.599999999999996
276,26.699999999999992
277,16.61490857731309
278,92.69307126784382
341,15.599999999999996
342,26.699999999999992
343,16.438056179661057
344,93.947948730456
407,15.599999999999996
408,26.699999999999992
409,16.56997467570086
410,92.99515896413861
473,15.599999999999996
474,26.699999999999992
1,MONTREAL INT'L ANN CLG .4% CONDNS ENTH=>MDB,  45.47, -73.75,  -5.00,  36.00
2,1, 7,21, 0, 1, 0.00,60.00,SummerDesignDay
7,17.062260347712563
8,92.16010435325215
143,15.599999999999996
144,26.699999999999992
145,16.996291085422516
146,92.68116284413952
209,15.599999999999996
210,26.699999999999992
211,17.052837330404483
212,92.20070297006703
275,15.599999999999996
276,26.699999999999992
277,17.240152949622424
278,92.34914832269966
341,15.599999999999996
342,26.699999999999992
343,17.06866242681866
344,93.63998879307985
407,15.599999999999996
408,26.699999999999992
409,17.200766795995737
410,92.62865717724424
473,15.599999999999996
474,26.699999999999992
2,1, 7,21, 0, 2, 0.00,60.00,SummerDesignDay
7,16.937827171885097
8,91.51058399004262
143,15.599999999999996
144,26.699999999999992
145,16.889415066223105
146,91.97066487198263
209,15.599999999999996
210,26.699999999999992
211,16.933243486552197
212,91.54283462062506
275,15.599999999999996
276,26.699999999999992
277,17.08378680297103
278,92.21052540369875
341,15.599999999999996
342,26.699999999999992
343,16.933968442002087
344,93.3486676382031
407,15.599999999999996
408,26.699999999999992
409,17.050669107038082
410,92.44995242696798
473,15.599999999999996
474,26.699999999999992
2,1, 7,21, 0, 3, 0.00,60.00,SummerDesignDay
7,16.83692189509339
8,91.06548178771737
143,15.599999999999996
144,26.699999999999992
145,16.80266170418404
146,91.42129459954407
209,15.599999999999996
210,26.699999999999992
211,16.836319003036305
212,91.07100972701073
275,15.599999999999996
276,26.699999999999992
277,16.949896061541494
278,92.22576623608718
341,15.599999999999996
342,26.699999999999992
343,16.819287069682282
344,93.22924046260914
407,15.599999999999996
408,26.699999999999992
409,16.922344917869122
410,92.42852681028188
473,15.599999999999996
474,26.699999999999992
2,1, 7,21, 0, 4, 0.00,60.00,SummerDesignDay
7,16.746393379555936
8,90.77803985160784
143,15.599999999999996
144,26.699999999999992
145,16.724494872012983
146,91.04525848622501
209,15.599999999999996
210,26.699999999999992
211,16.74932591786897
212,90.76065303424487
275,15.599999999999996
276,26.699999999999992
277,16.823816748315902
278,92.32479113162896